<?xml version="1.0" encoding="UTF-8"?>

<!-- generated on 2025-05-25 19:00:38 by Eclipse SUMO sumo Version 1.21.0
<sumoConfiguration xmlns:xsi="http://www.w3.org/2001/XMLSchema-instance" xsi:noNamespaceSchemaLocation="http://sumo.dlr.de/xsd/sumoConfiguration.xsd">

    <input>
        <net-file value="london.net.xml"/>
        <route-files value="trips_before_routed.rou.xml"/>
    </input>

    <output>
        <fcd-output value="fcd_before.xml"/>
        <tripinfo-output value="tripinfo_before.xml"/>
    </output>

    <time>
        <begin value="0"/>
        <end value="3600"/>
    </time>

    <processing>
        <ignore-route-errors value="true"/>
    </processing>

</sumoConfiguration>
-->

<tripinfos xmlns:xsi="http://www.w3.org/2001/XMLSchema-instance" xsi:noNamespaceSchemaLocation="http://sumo.dlr.de/xsd/tripinfo_file.xsd">
    <personinfo id="person_136" depart="136.00" type="DEFAULT_PEDTYPE" speedFactor="0.99" duration="111.00" waitingTime="0.00" timeLoss="26.76" traveltime="111.00">
        <walk depart="136.00" departPos="0.00" arrival="247.00" arrivalPos="19.66" duration="111.00" routeLength="116.00" timeLoss="26.76" maxSpeed="1.38"/>
    </personinfo>
    <personinfo id="person_0" depart="0.00" type="DEFAULT_PEDTYPE" speedFactor="1.06" duration="304.00" waitingTime="0.00" timeLoss="62.64" traveltime="304.00">
        <walk depart="0.00" departPos="0.00" arrival="134.00" arrivalPos="42.23" duration="134.00" routeLength="162.78" timeLoss="23.43" maxSpeed="1.47"/>
        <walk depart="134.00" departPos="42.23" arrival="304.00" arrivalPos="29.77" duration="170.00" routeLength="192.55" timeLoss="39.21" maxSpeed="1.47"/>
    </personinfo>
    <personinfo id="person_3" depart="3.00" type="DEFAULT_PEDTYPE" speedFactor="1.08" duration="302.00" waitingTime="0.00" timeLoss="65.70" traveltime="302.00">
        <walk depart="3.00" departPos="0.00" arrival="136.00" arrivalPos="42.23" duration="133.00" routeLength="162.78" timeLoss="24.75" maxSpeed="1.50"/>
        <walk depart="136.00" departPos="42.23" arrival="305.00" arrivalPos="29.77" duration="169.00" routeLength="192.55" timeLoss="40.95" maxSpeed="1.50"/>
    </personinfo>
    <personinfo id="person_134" depart="134.00" type="DEFAULT_PEDTYPE" speedFactor="1.18" duration="188.00" waitingTime="0.00" timeLoss="30.33" traveltime="188.00">
        <walk depart="134.00" departPos="0.00" arrival="230.00" arrivalPos="2.05" duration="96.00" routeLength="139.73" timeLoss="10.53" maxSpeed="1.63"/>
        <walk depart="230.00" departPos="2.05" arrival="322.00" arrivalPos="19.66" duration="92.00" routeLength="118.04" timeLoss="19.80" maxSpeed="1.63"/>
    </personinfo>
    <personinfo id="person_4" depart="4.00" type="DEFAULT_PEDTYPE" speedFactor="1.03" duration="326.00" waitingTime="0.00" timeLoss="77.68" traveltime="326.00">
        <walk depart="4.00" departPos="0.00" arrival="152.00" arrivalPos="42.23" duration="148.00" routeLength="162.78" timeLoss="34.24" maxSpeed="1.43"/>
        <walk depart="152.00" departPos="42.23" arrival="330.00" arrivalPos="29.77" duration="178.00" routeLength="192.55" timeLoss="43.44" maxSpeed="1.43"/>
    </personinfo>
    <personinfo id="person_6" depart="6.00" type="DEFAULT_PEDTYPE" speedFactor="1.05" duration="325.00" waitingTime="0.00" timeLoss="80.36" traveltime="325.00">
        <walk depart="6.00" departPos="0.00" arrival="151.00" arrivalPos="42.23" duration="145.00" routeLength="162.78" timeLoss="32.93" maxSpeed="1.45"/>
        <walk depart="151.00" departPos="42.23" arrival="331.00" arrivalPos="29.77" duration="180.00" routeLength="192.55" timeLoss="47.44" maxSpeed="1.45"/>
    </personinfo>
    <personinfo id="person_2" depart="2.00" type="DEFAULT_PEDTYPE" speedFactor="1.01" duration="337.00" waitingTime="0.00" timeLoss="83.79" traveltime="337.00">
        <walk depart="2.00" departPos="0.00" arrival="151.00" arrivalPos="42.23" duration="149.00" routeLength="162.78" timeLoss="33.00" maxSpeed="1.40"/>
        <walk depart="151.00" departPos="42.23" arrival="339.00" arrivalPos="29.77" duration="188.00" routeLength="192.55" timeLoss="50.79" maxSpeed="1.40"/>
    </personinfo>
    <personinfo id="person_1" depart="1.00" type="DEFAULT_PEDTYPE" speedFactor="0.94" duration="341.00" waitingTime="0.00" timeLoss="68.34" traveltime="341.00">
        <walk depart="1.00" departPos="0.00" arrival="151.00" arrivalPos="42.23" duration="150.00" routeLength="162.78" timeLoss="25.09" maxSpeed="1.30"/>
        <walk depart="151.00" departPos="42.23" arrival="342.00" arrivalPos="29.77" duration="191.00" routeLength="192.55" timeLoss="43.25" maxSpeed="1.30"/>
    </personinfo>
    <personinfo id="person_8" depart="8.00" type="DEFAULT_PEDTYPE" speedFactor="0.94" duration="348.00" waitingTime="0.00" timeLoss="75.22" traveltime="348.00">
        <walk depart="8.00" departPos="0.00" arrival="163.00" arrivalPos="42.23" duration="155.00" routeLength="162.78" timeLoss="30.03" maxSpeed="1.30"/>
        <walk depart="163.00" departPos="42.23" arrival="356.00" arrivalPos="29.77" duration="193.00" routeLength="192.55" timeLoss="45.19" maxSpeed="1.30"/>
    </personinfo>
    <personinfo id="person_135" depart="135.00" type="DEFAULT_PEDTYPE" speedFactor="1.00" duration="222.00" waitingTime="0.00" timeLoss="37.20" traveltime="222.00">
        <walk depart="135.00" departPos="0.00" arrival="247.00" arrivalPos="2.05" duration="112.00" routeLength="139.73" timeLoss="11.83" maxSpeed="1.39"/>
        <walk depart="247.00" departPos="2.05" arrival="357.00" arrivalPos="19.66" duration="110.00" routeLength="118.04" timeLoss="25.37" maxSpeed="1.39"/>
    </personinfo>
    <personinfo id="person_138" depart="138.00" type="DEFAULT_PEDTYPE" speedFactor="0.94" duration="240.00" waitingTime="0.00" timeLoss="42.87" traveltime="240.00">
        <walk depart="138.00" departPos="0.00" arrival="260.00" arrivalPos="2.05" duration="122.00" routeLength="139.73" timeLoss="15.14" maxSpeed="1.31"/>
        <walk depart="260.00" departPos="2.05" arrival="378.00" arrivalPos="19.66" duration="118.00" routeLength="118.04" timeLoss="27.73" maxSpeed="1.31"/>
    </personinfo>
    <personinfo id="person_142" depart="142.00" type="DEFAULT_PEDTYPE" speedFactor="1.06" duration="236.00" waitingTime="0.00" timeLoss="61.06" traveltime="236.00">
        <walk depart="142.00" departPos="0.00" arrival="260.00" arrivalPos="2.05" duration="118.00" routeLength="139.73" timeLoss="23.17" maxSpeed="1.47"/>
        <walk depart="260.00" departPos="2.05" arrival="378.00" arrivalPos="19.66" duration="118.00" routeLength="118.04" timeLoss="37.89" maxSpeed="1.47"/>
    </personinfo>
    <personinfo id="person_144" depart="144.00" type="DEFAULT_PEDTYPE" speedFactor="1.03" duration="235.00" waitingTime="0.00" timeLoss="55.19" traveltime="235.00">
        <walk depart="144.00" departPos="0.00" arrival="261.00" arrivalPos="2.05" duration="117.00" routeLength="139.73" timeLoss="19.53" maxSpeed="1.43"/>
        <walk depart="261.00" departPos="2.05" arrival="379.00" arrivalPos="19.66" duration="118.00" routeLength="118.04" timeLoss="35.66" maxSpeed="1.43"/>
    </personinfo>
    <personinfo id="person_154" depart="154.00" type="DEFAULT_PEDTYPE" speedFactor="1.12" duration="225.00" waitingTime="0.00" timeLoss="59.21" traveltime="225.00">
        <walk depart="154.00" departPos="0.00" arrival="262.00" arrivalPos="2.05" duration="108.00" routeLength="139.73" timeLoss="18.13" maxSpeed="1.55"/>
        <walk depart="262.00" departPos="2.05" arrival="379.00" arrivalPos="19.66" duration="117.00" routeLength="118.04" timeLoss="41.08" maxSpeed="1.55"/>
    </personinfo>
    <personinfo id="person_147" depart="147.00" type="DEFAULT_PEDTYPE" speedFactor="1.01" duration="233.00" waitingTime="0.00" timeLoss="48.93" traveltime="233.00">
        <walk depart="147.00" departPos="0.00" arrival="261.00" arrivalPos="2.05" duration="114.00" routeLength="139.73" timeLoss="14.22" maxSpeed="1.40"/>
        <walk depart="261.00" departPos="2.05" arrival="380.00" arrivalPos="19.66" duration="119.00" routeLength="118.04" timeLoss="34.71" maxSpeed="1.40"/>
    </personinfo>
    <personinfo id="person_163" depart="163.00" type="DEFAULT_PEDTYPE" speedFactor="1.14" duration="217.00" waitingTime="0.00" timeLoss="54.31" traveltime="217.00">
        <walk depart="163.00" departPos="0.00" arrival="262.00" arrivalPos="2.05" duration="99.00" routeLength="139.73" timeLoss="10.81" maxSpeed="1.58"/>
        <walk depart="262.00" departPos="2.05" arrival="380.00" arrivalPos="19.66" duration="118.00" routeLength="118.04" timeLoss="43.50" maxSpeed="1.58"/>
    </personinfo>
    <personinfo id="person_158" depart="158.00" type="DEFAULT_PEDTYPE" speedFactor="1.11" duration="222.00" waitingTime="0.00" timeLoss="55.37" traveltime="222.00">
        <walk depart="158.00" departPos="0.00" arrival="278.00" arrivalPos="2.05" duration="120.00" routeLength="139.73" timeLoss="29.67" maxSpeed="1.55"/>
        <walk depart="278.00" departPos="2.05" arrival="380.00" arrivalPos="19.66" duration="102.00" routeLength="118.04" timeLoss="25.69" maxSpeed="1.55"/>
    </personinfo>
    <personinfo id="person_174" depart="174.00" type="DEFAULT_PEDTYPE" speedFactor="1.18" duration="213.00" waitingTime="0.00" timeLoss="55.58" traveltime="213.00">
        <walk depart="174.00" departPos="0.00" arrival="287.00" arrivalPos="2.05" duration="113.00" routeLength="139.73" timeLoss="27.67" maxSpeed="1.64"/>
        <walk depart="287.00" departPos="2.05" arrival="387.00" arrivalPos="19.66" duration="100.00" routeLength="118.04" timeLoss="27.91" maxSpeed="1.64"/>
    </personinfo>
    <personinfo id="person_9" depart="9.00" type="DEFAULT_PEDTYPE" speedFactor="0.86" duration="382.00" waitingTime="0.00" timeLoss="83.43" traveltime="382.00">
        <walk depart="9.00" departPos="0.00" arrival="177.00" arrivalPos="42.23" duration="168.00" routeLength="162.78" timeLoss="31.22" maxSpeed="1.19"/>
        <walk depart="177.00" departPos="42.23" arrival="391.00" arrivalPos="29.77" duration="214.00" routeLength="192.55" timeLoss="52.21" maxSpeed="1.19"/>
    </personinfo>
    <personinfo id="person_5" depart="5.00" type="DEFAULT_PEDTYPE" speedFactor="0.83" duration="386.00" waitingTime="0.00" timeLoss="78.13" traveltime="386.00">
        <walk depart="5.00" departPos="0.00" arrival="175.00" arrivalPos="42.23" duration="170.00" routeLength="162.78" timeLoss="28.96" maxSpeed="1.15"/>
        <walk depart="175.00" departPos="42.23" arrival="391.00" arrivalPos="29.77" duration="216.00" routeLength="192.55" timeLoss="49.17" maxSpeed="1.15"/>
    </personinfo>
    <personinfo id="person_7" depart="7.00" type="DEFAULT_PEDTYPE" speedFactor="0.89" duration="385.00" waitingTime="0.00" timeLoss="96.24" traveltime="385.00">
        <walk depart="7.00" departPos="0.00" arrival="176.00" arrivalPos="42.23" duration="169.00" routeLength="162.78" timeLoss="36.71" maxSpeed="1.23"/>
        <walk depart="176.00" departPos="42.23" arrival="392.00" arrivalPos="29.77" duration="216.00" routeLength="192.55" timeLoss="59.53" maxSpeed="1.23"/>
    </personinfo>
    <personinfo id="person_167" depart="167.00" type="DEFAULT_PEDTYPE" speedFactor="1.04" duration="244.00" waitingTime="0.00" timeLoss="65.52" traveltime="244.00">
        <walk depart="167.00" departPos="0.00" arrival="283.00" arrivalPos="2.05" duration="116.00" routeLength="139.73" timeLoss="19.26" maxSpeed="1.44"/>
        <walk depart="283.00" departPos="2.05" arrival="411.00" arrivalPos="19.66" duration="128.00" routeLength="118.04" timeLoss="46.27" maxSpeed="1.44"/>
    </personinfo>
    <personinfo id="person_145" depart="145.00" type="DEFAULT_PEDTYPE" speedFactor="0.82" duration="270.00" waitingTime="0.00" timeLoss="44.24" traveltime="270.00">
        <walk depart="145.00" departPos="0.00" arrival="281.00" arrivalPos="2.05" duration="136.00" routeLength="139.73" timeLoss="13.62" maxSpeed="1.14"/>
        <walk depart="281.00" departPos="2.05" arrival="415.00" arrivalPos="19.66" duration="134.00" routeLength="118.04" timeLoss="30.62" maxSpeed="1.14"/>
    </personinfo>
    <personinfo id="person_150" depart="150.00" type="DEFAULT_PEDTYPE" speedFactor="0.96" duration="266.00" waitingTime="0.00" timeLoss="72.61" traveltime="266.00">
        <walk depart="150.00" departPos="0.00" arrival="282.00" arrivalPos="2.05" duration="132.00" routeLength="139.73" timeLoss="27.17" maxSpeed="1.33"/>
        <walk depart="282.00" departPos="2.05" arrival="416.00" arrivalPos="19.66" duration="134.00" routeLength="118.04" timeLoss="45.44" maxSpeed="1.33"/>
    </personinfo>
    <personinfo id="person_160" depart="160.00" type="DEFAULT_PEDTYPE" speedFactor="0.94" duration="256.00" waitingTime="0.00" timeLoss="57.80" traveltime="256.00">
        <walk depart="160.00" departPos="0.00" arrival="282.00" arrivalPos="2.05" duration="122.00" routeLength="139.73" timeLoss="14.56" maxSpeed="1.30"/>
        <walk depart="282.00" departPos="2.05" arrival="416.00" arrivalPos="19.66" duration="134.00" routeLength="118.04" timeLoss="43.24" maxSpeed="1.30"/>
    </personinfo>
    <personinfo id="person_166" depart="166.00" type="DEFAULT_PEDTYPE" speedFactor="0.97" duration="251.00" waitingTime="0.00" timeLoss="59.03" traveltime="251.00">
        <walk depart="166.00" departPos="0.00" arrival="292.00" arrivalPos="2.05" duration="126.00" routeLength="139.73" timeLoss="21.94" maxSpeed="1.34"/>
        <walk depart="292.00" departPos="2.05" arrival="417.00" arrivalPos="19.66" duration="125.00" routeLength="118.04" timeLoss="37.09" maxSpeed="1.34"/>
    </personinfo>
    <personinfo id="person_188" depart="188.00" type="DEFAULT_PEDTYPE" speedFactor="1.09" duration="229.00" waitingTime="0.00" timeLoss="58.24" traveltime="229.00">
        <walk depart="188.00" departPos="0.00" arrival="303.00" arrivalPos="2.05" duration="115.00" routeLength="139.73" timeLoss="22.44" maxSpeed="1.51"/>
        <walk depart="303.00" departPos="2.05" arrival="417.00" arrivalPos="19.66" duration="114.00" routeLength="118.04" timeLoss="35.80" maxSpeed="1.51"/>
    </personinfo>
    <personinfo id="person_164" depart="164.00" type="DEFAULT_PEDTYPE" speedFactor="0.89" duration="253.00" waitingTime="0.00" timeLoss="43.71" traveltime="253.00">
        <walk depart="164.00" departPos="0.00" arrival="291.00" arrivalPos="2.05" duration="127.00" routeLength="139.73" timeLoss="13.55" maxSpeed="1.23"/>
        <walk depart="291.00" departPos="2.05" arrival="417.00" arrivalPos="19.66" duration="126.00" routeLength="118.04" timeLoss="30.16" maxSpeed="1.23"/>
    </personinfo>
    <personinfo id="person_170" depart="170.00" type="DEFAULT_PEDTYPE" speedFactor="1.07" duration="248.00" waitingTime="0.00" timeLoss="74.77" traveltime="248.00">
        <walk depart="170.00" departPos="0.00" arrival="292.00" arrivalPos="2.05" duration="122.00" routeLength="139.73" timeLoss="28.10" maxSpeed="1.49"/>
        <walk depart="292.00" departPos="2.05" arrival="418.00" arrivalPos="19.66" duration="126.00" routeLength="118.04" timeLoss="46.67" maxSpeed="1.49"/>
    </personinfo>
    <personinfo id="person_169" depart="169.00" type="DEFAULT_PEDTYPE" speedFactor="1.00" duration="250.00" waitingTime="0.00" timeLoss="65.25" traveltime="250.00">
        <walk depart="169.00" departPos="0.00" arrival="293.00" arrivalPos="2.05" duration="124.00" routeLength="139.73" timeLoss="23.86" maxSpeed="1.40"/>
        <walk depart="293.00" departPos="2.05" arrival="419.00" arrivalPos="19.66" duration="126.00" routeLength="118.04" timeLoss="41.40" maxSpeed="1.40"/>
    </personinfo>
    <personinfo id="person_184" depart="184.00" type="DEFAULT_PEDTYPE" speedFactor="1.00" duration="235.00" waitingTime="0.00" timeLoss="50.22" traveltime="235.00">
        <walk depart="184.00" departPos="0.00" arrival="299.00" arrivalPos="2.05" duration="115.00" routeLength="139.73" timeLoss="14.84" maxSpeed="1.39"/>
        <walk depart="299.00" departPos="2.05" arrival="419.00" arrivalPos="19.66" duration="120.00" routeLength="118.04" timeLoss="35.38" maxSpeed="1.39"/>
    </personinfo>
    <personinfo id="person_162" depart="162.00" type="DEFAULT_PEDTYPE" speedFactor="0.73" duration="304.00" waitingTime="0.00" timeLoss="51.00" traveltime="304.00">
        <walk depart="162.00" departPos="0.00" arrival="314.00" arrivalPos="2.05" duration="152.00" routeLength="139.73" timeLoss="14.86" maxSpeed="1.02"/>
        <walk depart="314.00" departPos="2.05" arrival="466.00" arrivalPos="19.66" duration="152.00" routeLength="118.04" timeLoss="36.14" maxSpeed="1.02"/>
    </personinfo>
    <personinfo id="person_180" depart="180.00" type="DEFAULT_PEDTYPE" speedFactor="0.99" duration="286.00" waitingTime="0.00" timeLoss="99.06" traveltime="286.00">
        <walk depart="180.00" departPos="0.00" arrival="315.00" arrivalPos="2.05" duration="135.00" routeLength="139.73" timeLoss="33.67" maxSpeed="1.38"/>
        <walk depart="315.00" departPos="2.05" arrival="466.00" arrivalPos="19.66" duration="151.00" routeLength="118.04" timeLoss="65.39" maxSpeed="1.38"/>
    </personinfo>
    <personinfo id="person_189" depart="189.00" type="DEFAULT_PEDTYPE" speedFactor="0.90" duration="278.00" waitingTime="0.00" timeLoss="70.93" traveltime="278.00">
        <walk depart="189.00" departPos="0.00" arrival="316.00" arrivalPos="2.05" duration="127.00" routeLength="139.73" timeLoss="14.76" maxSpeed="1.24"/>
        <walk depart="316.00" departPos="2.05" arrival="467.00" arrivalPos="19.66" duration="151.00" routeLength="118.04" timeLoss="56.17" maxSpeed="1.24"/>
    </personinfo>
    <personinfo id="person_28" depart="28.00" type="DEFAULT_PEDTYPE" speedFactor="1.13" duration="826.00" waitingTime="0.00" timeLoss="205.41" traveltime="826.00">
        <walk depart="28.00" departPos="0.00" arrival="854.00" arrivalPos="24.52" duration="826.00" routeLength="975.54" timeLoss="205.41" maxSpeed="1.57"/>
    </personinfo>
    <personinfo id="person_31" depart="31.00" type="DEFAULT_PEDTYPE" speedFactor="1.15" duration="843.00" waitingTime="0.00" timeLoss="234.56" traveltime="843.00">
        <walk depart="31.00" departPos="0.00" arrival="874.00" arrivalPos="24.52" duration="843.00" routeLength="975.54" timeLoss="234.56" maxSpeed="1.60"/>
    </personinfo>
    <personinfo id="person_14" depart="14.00" type="DEFAULT_PEDTYPE" speedFactor="0.99" duration="879.00" waitingTime="0.00" timeLoss="170.38" traveltime="879.00">
        <walk depart="14.00" departPos="0.00" arrival="893.00" arrivalPos="24.52" duration="879.00" routeLength="975.54" timeLoss="170.38" maxSpeed="1.38"/>
    </personinfo>
    <personinfo id="person_34" depart="34.00" type="DEFAULT_PEDTYPE" speedFactor="0.99" duration="900.00" waitingTime="0.00" timeLoss="193.94" traveltime="900.00">
        <walk depart="34.00" departPos="0.00" arrival="934.00" arrivalPos="24.52" duration="900.00" routeLength="975.54" timeLoss="193.94" maxSpeed="1.38"/>
    </personinfo>
    <personinfo id="person_17" depart="17.00" type="DEFAULT_PEDTYPE" speedFactor="0.94" duration="919.00" waitingTime="0.00" timeLoss="154.67" traveltime="919.00">
        <walk depart="17.00" departPos="0.00" arrival="936.00" arrivalPos="2.05" duration="919.00" routeLength="999.36" timeLoss="154.67" maxSpeed="1.31"/>
    </personinfo>
    <personinfo id="person_21" depart="21.00" type="DEFAULT_PEDTYPE" speedFactor="1.01" duration="921.00" waitingTime="0.00" timeLoss="221.30" traveltime="921.00">
        <walk depart="21.00" departPos="0.00" arrival="37.00" arrivalPos="2.05" duration="16.00" routeLength="8.23" timeLoss="10.13" maxSpeed="1.40"/>
        <walk depart="37.00" departPos="2.05" arrival="942.00" arrivalPos="24.52" duration="905.00" routeLength="973.49" timeLoss="211.16" maxSpeed="1.40"/>
    </personinfo>
    <personinfo id="person_18" depart="18.00" type="DEFAULT_PEDTYPE" speedFactor="0.94" duration="929.00" waitingTime="0.00" timeLoss="178.75" traveltime="929.00">
        <walk depart="18.00" departPos="0.00" arrival="947.00" arrivalPos="24.52" duration="929.00" routeLength="975.54" timeLoss="178.75" maxSpeed="1.30"/>
    </personinfo>
    <personinfo id="person_22" depart="22.00" type="DEFAULT_PEDTYPE" speedFactor="0.97" duration="937.00" waitingTime="0.00" timeLoss="212.04" traveltime="937.00">
        <walk depart="22.00" departPos="0.00" arrival="38.00" arrivalPos="2.05" duration="16.00" routeLength="8.23" timeLoss="9.92" maxSpeed="1.35"/>
        <walk depart="38.00" departPos="2.05" arrival="959.00" arrivalPos="24.52" duration="921.00" routeLength="973.49" timeLoss="202.12" maxSpeed="1.35"/>
    </personinfo>
    <personinfo id="person_61" depart="61.00" type="DEFAULT_PEDTYPE" speedFactor="1.12" duration="898.00" waitingTime="0.00" timeLoss="266.50" traveltime="898.00">
        <walk depart="61.00" departPos="0.00" arrival="75.00" arrivalPos="2.05" duration="14.00" routeLength="8.23" timeLoss="8.71" maxSpeed="1.55"/>
        <walk depart="75.00" departPos="2.05" arrival="959.00" arrivalPos="24.52" duration="884.00" routeLength="973.49" timeLoss="257.79" maxSpeed="1.55"/>
    </personinfo>
    <personinfo id="person_12" depart="12.00" type="DEFAULT_PEDTYPE" speedFactor="1.05" duration="980.00" waitingTime="0.00" timeLoss="226.86" traveltime="980.00">
        <walk depart="12.00" departPos="0.00" arrival="992.00" arrivalPos="19.66" duration="980.00" routeLength="1095.30" timeLoss="226.86" maxSpeed="1.45"/>
    </personinfo>
    <personinfo id="person_40" depart="40.00" type="DEFAULT_PEDTYPE" speedFactor="1.03" duration="953.00" waitingTime="0.00" timeLoss="267.02" traveltime="953.00">
        <walk depart="40.00" departPos="0.00" arrival="58.00" arrivalPos="2.05" duration="18.00" routeLength="8.23" timeLoss="12.25" maxSpeed="1.43"/>
        <walk depart="58.00" departPos="2.05" arrival="993.00" arrivalPos="24.52" duration="935.00" routeLength="973.49" timeLoss="254.77" maxSpeed="1.43"/>
    </personinfo>
    <personinfo id="person_33" depart="33.00" type="DEFAULT_PEDTYPE" speedFactor="1.17" duration="1042.00" waitingTime="0.00" timeLoss="285.42" traveltime="1042.00">
        <walk depart="33.00" departPos="0.00" arrival="973.00" arrivalPos="19.66" duration="940.00" routeLength="1095.30" timeLoss="267.01" maxSpeed="1.63"/>
        <walk depart="973.00" departPos="19.66" arrival="1075.00" arrivalPos="10.01" duration="102.00" routeLength="136.04" timeLoss="18.42" maxSpeed="1.63"/>
    </personinfo>
    <personinfo id="person_13" depart="13.00" type="DEFAULT_PEDTYPE" speedFactor="1.12" duration="1073.00" waitingTime="0.00" timeLoss="313.52" traveltime="1073.00">
        <walk depart="13.00" departPos="0.00" arrival="113.00" arrivalPos="19.66" duration="100.00" routeLength="116.00" timeLoss="25.62" maxSpeed="1.56"/>
        <walk depart="113.00" departPos="19.66" arrival="1086.00" arrivalPos="24.52" duration="973.00" routeLength="1068.48" timeLoss="287.89" maxSpeed="1.56"/>
    </personinfo>
    <personinfo id="person_55" depart="55.00" type="DEFAULT_PEDTYPE" speedFactor="1.00" duration="1067.00" waitingTime="0.00" timeLoss="275.22" traveltime="1067.00">
        <walk depart="55.00" departPos="0.00" arrival="1122.00" arrivalPos="19.66" duration="1067.00" routeLength="1095.30" timeLoss="275.22" maxSpeed="1.38"/>
    </personinfo>
    <personinfo id="person_45" depart="45.00" type="DEFAULT_PEDTYPE" speedFactor="1.09" duration="1081.00" waitingTime="0.00" timeLoss="276.71" traveltime="1081.00">
        <walk depart="45.00" departPos="0.00" arrival="1038.00" arrivalPos="19.66" duration="993.00" routeLength="1095.30" timeLoss="268.17" maxSpeed="1.51"/>
        <walk depart="1038.00" departPos="19.66" arrival="1126.00" arrivalPos="2.05" duration="88.00" routeLength="120.08" timeLoss="8.54" maxSpeed="1.51"/>
    </personinfo>
    <personinfo id="person_38" depart="38.00" type="DEFAULT_PEDTYPE" speedFactor="1.10" duration="1093.00" waitingTime="0.00" timeLoss="299.15" traveltime="1093.00">
        <walk depart="38.00" departPos="0.00" arrival="1042.00" arrivalPos="19.66" duration="1004.00" routeLength="1095.30" timeLoss="288.58" maxSpeed="1.53"/>
        <walk depart="1042.00" departPos="19.66" arrival="1131.00" arrivalPos="2.05" duration="89.00" routeLength="120.08" timeLoss="10.57" maxSpeed="1.53"/>
    </personinfo>
    <personinfo id="person_19" depart="19.00" type="DEFAULT_PEDTYPE" speedFactor="1.16" duration="1151.00" waitingTime="0.00" timeLoss="410.82" traveltime="1151.00">
        <walk depart="19.00" departPos="0.00" arrival="152.00" arrivalPos="19.66" duration="133.00" routeLength="122.18" timeLoss="57.05" maxSpeed="1.61"/>
        <walk depart="152.00" departPos="19.66" arrival="1170.00" arrivalPos="24.52" duration="1018.00" routeLength="1068.48" timeLoss="353.77" maxSpeed="1.61"/>
    </personinfo>
    <personinfo id="person_37" depart="37.00" type="DEFAULT_PEDTYPE" speedFactor="1.18" duration="1145.00" waitingTime="0.00" timeLoss="422.08" traveltime="1145.00">
        <walk depart="37.00" departPos="0.00" arrival="153.00" arrivalPos="19.66" duration="116.00" routeLength="116.00" timeLoss="45.21" maxSpeed="1.64"/>
        <walk depart="153.00" departPos="19.66" arrival="1182.00" arrivalPos="24.52" duration="1029.00" routeLength="1068.48" timeLoss="376.88" maxSpeed="1.64"/>
    </personinfo>
    <personinfo id="person_23" depart="23.00" type="DEFAULT_PEDTYPE" speedFactor="0.89" duration="1166.00" waitingTime="0.00" timeLoss="279.52" traveltime="1166.00">
        <walk depart="23.00" departPos="0.00" arrival="1189.00" arrivalPos="19.66" duration="1166.00" routeLength="1095.30" timeLoss="279.52" maxSpeed="1.24"/>
    </personinfo>
    <personinfo id="person_35" depart="35.00" type="DEFAULT_PEDTYPE" speedFactor="1.02" duration="1166.00" waitingTime="0.00" timeLoss="307.84" traveltime="1166.00">
        <walk depart="35.00" departPos="0.00" arrival="1106.00" arrivalPos="19.66" duration="1071.00" routeLength="1095.30" timeLoss="297.62" maxSpeed="1.42"/>
        <walk depart="1106.00" departPos="19.66" arrival="1201.00" arrivalPos="2.05" duration="95.00" routeLength="120.08" timeLoss="10.22" maxSpeed="1.42"/>
    </personinfo>
    <personinfo id="person_69" depart="69.00" type="DEFAULT_PEDTYPE" speedFactor="1.02" duration="1148.00" waitingTime="0.00" timeLoss="291.85" traveltime="1148.00">
        <walk depart="69.00" departPos="0.00" arrival="1123.00" arrivalPos="19.66" duration="1054.00" routeLength="1095.30" timeLoss="282.44" maxSpeed="1.42"/>
        <walk depart="1123.00" departPos="19.66" arrival="1217.00" arrivalPos="2.05" duration="94.00" routeLength="120.08" timeLoss="9.42" maxSpeed="1.42"/>
    </personinfo>
    <personinfo id="person_32" depart="32.00" type="DEFAULT_PEDTYPE" speedFactor="1.01" duration="1220.00" waitingTime="0.00" timeLoss="371.59" traveltime="1220.00">
        <walk depart="32.00" departPos="0.00" arrival="151.00" arrivalPos="19.66" duration="119.00" routeLength="116.00" timeLoss="35.92" maxSpeed="1.40"/>
        <walk depart="151.00" departPos="19.66" arrival="1252.00" arrivalPos="24.52" duration="1101.00" routeLength="1068.48" timeLoss="335.67" maxSpeed="1.40"/>
    </personinfo>
    <personinfo id="person_20" depart="20.00" type="DEFAULT_PEDTYPE" speedFactor="1.02" duration="1242.00" waitingTime="0.00" timeLoss="404.34" traveltime="1242.00">
        <walk depart="20.00" departPos="0.00" arrival="142.00" arrivalPos="19.66" duration="122.00" routeLength="116.00" timeLoss="39.97" maxSpeed="1.41"/>
        <walk depart="142.00" departPos="19.66" arrival="1262.00" arrivalPos="24.52" duration="1120.00" routeLength="1068.48" timeLoss="364.37" maxSpeed="1.41"/>
    </personinfo>
    <personinfo id="person_47" depart="47.00" type="DEFAULT_PEDTYPE" speedFactor="0.90" duration="1251.00" waitingTime="0.00" timeLoss="279.24" traveltime="1251.00">
        <walk depart="47.00" departPos="0.00" arrival="1190.00" arrivalPos="19.66" duration="1143.00" routeLength="1095.30" timeLoss="267.25" maxSpeed="1.25"/>
        <walk depart="1190.00" departPos="19.66" arrival="1298.00" arrivalPos="2.05" duration="108.00" routeLength="120.08" timeLoss="11.99" maxSpeed="1.25"/>
    </personinfo>
    <personinfo id="person_16" depart="16.00" type="DEFAULT_PEDTYPE" speedFactor="0.88" duration="1299.00" waitingTime="0.00" timeLoss="328.12" traveltime="1299.00">
        <walk depart="16.00" departPos="0.00" arrival="141.00" arrivalPos="19.66" duration="125.00" routeLength="116.00" timeLoss="29.92" maxSpeed="1.22"/>
        <walk depart="141.00" departPos="19.66" arrival="1315.00" arrivalPos="24.52" duration="1174.00" routeLength="1068.48" timeLoss="298.19" maxSpeed="1.22"/>
    </personinfo>
    <personinfo id="person_48" depart="48.00" type="DEFAULT_PEDTYPE" speedFactor="0.88" duration="1331.00" waitingTime="0.00" timeLoss="358.45" traveltime="1331.00">
        <walk depart="48.00" departPos="0.00" arrival="174.00" arrivalPos="19.66" duration="126.00" routeLength="116.00" timeLoss="30.76" maxSpeed="1.22"/>
        <walk depart="174.00" departPos="19.66" arrival="1379.00" arrivalPos="24.52" duration="1205.00" routeLength="1068.48" timeLoss="327.69" maxSpeed="1.22"/>
    </personinfo>
    <personinfo id="person_39" depart="39.00" type="DEFAULT_PEDTYPE" speedFactor="0.90" duration="1341.00" waitingTime="0.00" timeLoss="389.11" traveltime="1341.00">
        <walk depart="39.00" departPos="0.00" arrival="181.00" arrivalPos="19.66" duration="142.00" routeLength="122.18" timeLoss="44.33" maxSpeed="1.25"/>
        <walk depart="181.00" departPos="19.66" arrival="1380.00" arrivalPos="24.52" duration="1199.00" routeLength="1068.48" timeLoss="344.78" maxSpeed="1.25"/>
    </personinfo>
    <personinfo id="person_25" depart="25.00" type="DEFAULT_PEDTYPE" speedFactor="0.87" duration="1357.00" waitingTime="0.00" timeLoss="379.66" traveltime="1357.00">
        <walk depart="25.00" departPos="0.00" arrival="151.00" arrivalPos="19.66" duration="126.00" routeLength="116.00" timeLoss="30.29" maxSpeed="1.21"/>