<?xml version="1.0" encoding="UTF-8"?>

<!-- generated on 2025-05-25 19:05:28 by Eclipse SUMO sumo Version 1.21.0
<sumoConfiguration xmlns:xsi="http://www.w3.org/2001/XMLSchema-instance" xsi:noNamespaceSchemaLocation="http://sumo.dlr.de/xsd/sumoConfiguration.xsd">

    <input>
        <net-file value="london.net.xml"/>
        <route-files value="trips_after.rou.xml"/>
    </input>

    <output>
        <fcd-output value="fcd_after.xml"/>
        <tripinfo-output value="tripinfo_after.xml"/>
    </output>

    <time>
        <begin value="0"/>
        <end value="3600"/>
    </time>

    <processing>
        <ignore-route-errors value="true"/>
    </processing>

</sumoConfiguration>
-->

<tripinfos xmlns:xsi="http://www.w3.org/2001/XMLSchema-instance" xsi:noNamespaceSchemaLocation="http://sumo.dlr.de/xsd/tripinfo_file.xsd">
    <personinfo id="person_0" depart="0.00" type="DEFAULT_PEDTYPE" speedFactor="1.06" duration="131.00" waitingTime="0.00" timeLoss="12.97" traveltime="131.00">
        <walk depart="0.00" departPos="0.00" arrival="76.00" arrivalPos="42.23" duration="76.00" routeLength="101.77" timeLoss="6.88" maxSpeed="1.47"/>
        <walk depart="76.00" departPos="42.23" arrival="131.00" arrivalPos="29.77" duration="55.00" routeLength="72.00" timeLoss="6.09" maxSpeed="1.47"/>
    </personinfo>
    <personinfo id="person_3" depart="3.00" type="DEFAULT_PEDTYPE" speedFactor="1.08" duration="131.00" waitingTime="0.00" timeLoss="15.45" traveltime="131.00">
        <walk depart="3.00" departPos="0.00" arrival="80.00" arrivalPos="42.23" duration="77.00" routeLength="101.77" timeLoss="9.33" maxSpeed="1.50"/>
        <walk depart="80.00" departPos="42.23" arrival="134.00" arrivalPos="29.77" duration="54.00" routeLength="72.00" timeLoss="6.12" maxSpeed="1.50"/>
    </personinfo>
    <personinfo id="person_6" depart="6.00" type="DEFAULT_PEDTYPE" speedFactor="1.05" duration="138.00" waitingTime="0.00" timeLoss="18.37" traveltime="138.00">
        <walk depart="6.00" departPos="0.00" arrival="89.00" arrivalPos="42.23" duration="83.00" routeLength="101.77" timeLoss="12.94" maxSpeed="1.45"/>
        <walk depart="89.00" departPos="42.23" arrival="144.00" arrivalPos="29.77" duration="55.00" routeLength="72.00" timeLoss="5.43" maxSpeed="1.45"/>
    </personinfo>
    <personinfo id="person_4" depart="4.00" type="DEFAULT_PEDTYPE" speedFactor="1.03" duration="143.00" waitingTime="0.00" timeLoss="21.57" traveltime="143.00">
        <walk depart="4.00" departPos="0.00" arrival="88.00" arrivalPos="42.23" duration="84.00" routeLength="101.77" timeLoss="12.88" maxSpeed="1.43"/>
        <walk depart="88.00" departPos="42.23" arrival="147.00" arrivalPos="29.77" duration="59.00" routeLength="72.00" timeLoss="8.69" maxSpeed="1.43"/>
    </personinfo>
    <personinfo id="person_1" depart="1.00" type="DEFAULT_PEDTYPE" speedFactor="0.94" duration="150.00" waitingTime="0.00" timeLoss="16.66" traveltime="150.00">
        <walk depart="1.00" departPos="0.00" arrival="87.00" arrivalPos="42.23" duration="86.00" routeLength="101.77" timeLoss="7.91" maxSpeed="1.30"/>
        <walk depart="87.00" departPos="42.23" arrival="151.00" arrivalPos="29.77" duration="64.00" routeLength="72.00" timeLoss="8.75" maxSpeed="1.30"/>
    </personinfo>
    <personinfo id="person_2" depart="2.00" type="DEFAULT_PEDTYPE" speedFactor="1.01" duration="149.00" waitingTime="0.00" timeLoss="25.18" traveltime="149.00">
        <walk depart="2.00" departPos="0.00" arrival="88.00" arrivalPos="42.23" duration="86.00" routeLength="101.77" timeLoss="13.48" maxSpeed="1.40"/>
        <walk depart="88.00" departPos="42.23" arrival="151.00" arrivalPos="29.77" duration="63.00" routeLength="72.00" timeLoss="11.69" maxSpeed="1.40"/>
    </personinfo>
    <personinfo id="person_8" depart="8.00" type="DEFAULT_PEDTYPE" speedFactor="0.94" duration="159.00" waitingTime="0.00" timeLoss="25.61" traveltime="159.00">
        <walk depart="8.00" departPos="0.00" arrival="104.00" arrivalPos="42.23" duration="96.00" routeLength="101.77" timeLoss="17.88" maxSpeed="1.30"/>
        <walk depart="104.00" departPos="42.23" arrival="167.00" arrivalPos="29.77" duration="63.00" routeLength="72.00" timeLoss="7.73" maxSpeed="1.30"/>
    </personinfo>
    <personinfo id="person_7" depart="7.00" type="DEFAULT_PEDTYPE" speedFactor="0.89" duration="164.00" waitingTime="0.00" timeLoss="22.79" traveltime="164.00">
        <walk depart="7.00" departPos="0.00" arrival="105.00" arrivalPos="42.23" duration="98.00" routeLength="101.77" timeLoss="15.30" maxSpeed="1.23"/>
        <walk depart="105.00" departPos="42.23" arrival="171.00" arrivalPos="29.77" duration="66.00" routeLength="72.00" timeLoss="7.49" maxSpeed="1.23"/>
    </personinfo>
    <personinfo id="person_5" depart="5.00" type="DEFAULT_PEDTYPE" speedFactor="0.83" duration="168.00" waitingTime="0.00" timeLoss="17.45" traveltime="168.00">
        <walk depart="5.00" departPos="0.00" arrival="103.00" arrivalPos="42.23" duration="98.00" routeLength="101.77" timeLoss="9.83" maxSpeed="1.15"/>
        <walk depart="103.00" departPos="42.23" arrival="173.00" arrivalPos="29.77" duration="70.00" routeLength="72.00" timeLoss="7.62" maxSpeed="1.15"/>
    </personinfo>
    <personinfo id="person_9" depart="9.00" type="DEFAULT_PEDTYPE" speedFactor="0.86" duration="165.00" waitingTime="0.00" timeLoss="19.00" traveltime="165.00">
        <walk depart="9.00" departPos="0.00" arrival="105.00" arrivalPos="42.23" duration="96.00" routeLength="101.77" timeLoss="10.49" maxSpeed="1.19"/>
        <walk depart="105.00" departPos="42.23" arrival="174.00" arrivalPos="29.77" duration="69.00" routeLength="72.00" timeLoss="8.50" maxSpeed="1.19"/>
    </personinfo>
    <personinfo id="person_136" depart="136.00" type="DEFAULT_PEDTYPE" speedFactor="1.12" duration="99.00" waitingTime="0.00" timeLoss="24.40" traveltime="99.00">
        <walk depart="136.00" departPos="0.00" arrival="235.00" arrivalPos="19.66" duration="99.00" routeLength="116.00" timeLoss="24.40" maxSpeed="1.55"/>
    </personinfo>
    <personinfo id="person_226" depart="226.00" type="DEFAULT_PEDTYPE" speedFactor="1.24" duration="22.00" waitingTime="0.00" timeLoss="3.62" traveltime="22.00">
        <walk depart="226.00" departPos="0.00" arrival="231.00" arrivalPos="6.03" duration="5.00" routeLength="6.03" timeLoss="1.51" maxSpeed="1.73"/>
        <walk depart="231.00" departPos="6.03" arrival="248.00" arrivalPos="19.66" duration="17.00" routeLength="25.69" timeLoss="2.12" maxSpeed="1.73"/>
    </personinfo>
    <personinfo id="person_227" depart="227.00" type="DEFAULT_PEDTYPE" speedFactor="1.11" duration="23.00" waitingTime="0.00" timeLoss="2.42" traveltime="23.00">
        <walk depart="227.00" departPos="0.00" arrival="232.00" arrivalPos="6.03" duration="5.00" routeLength="6.03" timeLoss="1.09" maxSpeed="1.54"/>
        <walk depart="232.00" departPos="6.03" arrival="250.00" arrivalPos="19.66" duration="18.00" routeLength="25.69" timeLoss="1.34" maxSpeed="1.54"/>
    </personinfo>
    <personinfo id="person_228" depart="228.00" type="DEFAULT_PEDTYPE" speedFactor="1.09" duration="23.00" waitingTime="0.00" timeLoss="2.09" traveltime="23.00">
        <walk depart="228.00" departPos="0.00" arrival="233.00" arrivalPos="6.03" duration="5.00" routeLength="6.03" timeLoss="1.02" maxSpeed="1.52"/>
        <walk depart="233.00" departPos="6.03" arrival="251.00" arrivalPos="19.66" duration="18.00" routeLength="25.69" timeLoss="1.06" maxSpeed="1.52"/>
    </personinfo>
    <personinfo id="person_222" depart="222.00" type="DEFAULT_PEDTYPE" speedFactor="0.84" duration="30.00" waitingTime="0.00" timeLoss="2.68" traveltime="30.00">
        <walk depart="222.00" departPos="0.00" arrival="228.00" arrivalPos="6.03" duration="6.00" routeLength="6.03" timeLoss="0.81" maxSpeed="1.16"/>
        <walk depart="228.00" departPos="6.03" arrival="252.00" arrivalPos="19.66" duration="24.00" routeLength="25.69" timeLoss="1.87" maxSpeed="1.16"/>
    </personinfo>
    <personinfo id="person_225" depart="225.00" type="DEFAULT_PEDTYPE" speedFactor="0.97" duration="28.00" waitingTime="0.00" timeLoss="4.44" traveltime="28.00">
        <walk depart="225.00" departPos="0.00" arrival="230.00" arrivalPos="6.03" duration="5.00" routeLength="6.03" timeLoss="0.52" maxSpeed="1.35"/>
        <walk depart="230.00" departPos="6.03" arrival="253.00" arrivalPos="19.66" duration="23.00" routeLength="25.69" timeLoss="3.92" maxSpeed="1.35"/>
    </personinfo>
    <personinfo id="person_224" depart="224.00" type="DEFAULT_PEDTYPE" speedFactor="1.02" duration="29.00" waitingTime="0.00" timeLoss="6.51" traveltime="29.00">
        <walk depart="224.00" departPos="0.00" arrival="229.00" arrivalPos="6.03" duration="5.00" routeLength="6.03" timeLoss="0.72" maxSpeed="1.41"/>
        <walk depart="229.00" departPos="6.03" arrival="253.00" arrivalPos="19.66" duration="24.00" routeLength="25.69" timeLoss="5.78" maxSpeed="1.41"/>
    </personinfo>
    <personinfo id="person_229" depart="229.00" type="DEFAULT_PEDTYPE" speedFactor="0.99" duration="25.00" waitingTime="0.00" timeLoss="2.05" traveltime="25.00">
        <walk depart="229.00" departPos="0.00" arrival="234.00" arrivalPos="6.03" duration="5.00" routeLength="6.03" timeLoss="0.64" maxSpeed="1.38"/>
        <walk depart="234.00" departPos="6.03" arrival="254.00" arrivalPos="19.66" duration="20.00" routeLength="25.69" timeLoss="1.41" maxSpeed="1.38"/>
    </personinfo>
    <personinfo id="person_231" depart="231.00" type="DEFAULT_PEDTYPE" speedFactor="1.14" duration="24.00" waitingTime="0.00" timeLoss="3.99" traveltime="24.00">
        <walk depart="231.00" departPos="0.00" arrival="235.00" arrivalPos="6.03" duration="4.00" routeLength="6.03" timeLoss="0.20" maxSpeed="1.58"/>
        <walk depart="235.00" departPos="6.03" arrival="255.00" arrivalPos="19.66" duration="20.00" routeLength="25.69" timeLoss="3.79" maxSpeed="1.58"/>
    </personinfo>
    <personinfo id="person_232" depart="232.00" type="DEFAULT_PEDTYPE" speedFactor="0.97" duration="26.00" waitingTime="0.00" timeLoss="2.46" traveltime="26.00">
        <walk depart="232.00" departPos="0.00" arrival="237.00" arrivalPos="6.03" duration="5.00" routeLength="6.03" timeLoss="0.52" maxSpeed="1.35"/>
        <walk depart="237.00" departPos="6.03" arrival="258.00" arrivalPos="19.66" duration="21.00" routeLength="25.69" timeLoss="1.93" maxSpeed="1.35"/>
    </personinfo>
    <personinfo id="person_233" depart="233.00" type="DEFAULT_PEDTYPE" speedFactor="1.15" duration="25.00" waitingTime="0.00" timeLoss="5.18" traveltime="25.00">
        <walk depart="233.00" departPos="0.00" arrival="238.00" arrivalPos="6.03" duration="5.00" routeLength="6.03" timeLoss="1.23" maxSpeed="1.60"/>
        <walk depart="238.00" departPos="6.03" arrival="258.00" arrivalPos="19.66" duration="20.00" routeLength="25.69" timeLoss="3.95" maxSpeed="1.60"/>
    </personinfo>
    <personinfo id="person_235" depart="235.00" type="DEFAULT_PEDTYPE" speedFactor="0.96" duration="26.00" waitingTime="0.00" timeLoss="2.17" traveltime="26.00">
        <walk depart="235.00" departPos="0.00" arrival="240.00" arrivalPos="6.03" duration="5.00" routeLength="6.03" timeLoss="0.47" maxSpeed="1.33"/>
        <walk depart="240.00" departPos="6.03" arrival="261.00" arrivalPos="19.66" duration="21.00" routeLength="25.69" timeLoss="1.70" maxSpeed="1.33"/>
    </personinfo>
    <personinfo id="person_236" depart="236.00" type="DEFAULT_PEDTYPE" speedFactor="1.04" duration="25.00" waitingTime="0.00" timeLoss="3.07" traveltime="25.00">
        <walk depart="236.00" departPos="0.00" arrival="241.00" arrivalPos="6.03" duration="5.00" routeLength="6.03" timeLoss="0.83" maxSpeed="1.45"/>
        <walk depart="241.00" departPos="6.03" arrival="261.00" arrivalPos="19.66" duration="20.00" routeLength="25.69" timeLoss="2.24" maxSpeed="1.45"/>
    </personinfo>
    <personinfo id="person_238" depart="238.00" type="DEFAULT_PEDTYPE" speedFactor="1.10" duration="24.00" waitingTime="0.00" timeLoss="3.15" traveltime="24.00">
        <walk depart="238.00" departPos="0.00" arrival="243.00" arrivalPos="6.03" duration="5.00" routeLength="6.03" timeLoss="1.04" maxSpeed="1.52"/>
        <walk depart="243.00" departPos="6.03" arrival="262.00" arrivalPos="19.66" duration="19.00" routeLength="25.69" timeLoss="2.12" maxSpeed="1.52"/>
    </personinfo>
    <personinfo id="person_239" depart="239.00" type="DEFAULT_PEDTYPE" speedFactor="1.13" duration="23.00" waitingTime="0.00" timeLoss="2.75" traveltime="23.00">
        <walk depart="239.00" departPos="0.00" arrival="244.00" arrivalPos="6.03" duration="5.00" routeLength="6.03" timeLoss="1.15" maxSpeed="1.57"/>
        <walk depart="244.00" departPos="6.03" arrival="262.00" arrivalPos="19.66" duration="18.00" routeLength="25.69" timeLoss="1.60" maxSpeed="1.57"/>
    </personinfo>
    <personinfo id="person_240" depart="240.00" type="DEFAULT_PEDTYPE" speedFactor="0.95" duration="26.00" waitingTime="0.00" timeLoss="1.99" traveltime="26.00">
        <walk depart="240.00" departPos="0.00" arrival="245.00" arrivalPos="6.03" duration="5.00" routeLength="6.03" timeLoss="0.44" maxSpeed="1.32"/>
        <walk depart="245.00" departPos="6.03" arrival="266.00" arrivalPos="19.66" duration="21.00" routeLength="25.69" timeLoss="1.56" maxSpeed="1.32"/>
    </personinfo>
    <personinfo id="person_242" depart="242.00" type="DEFAULT_PEDTYPE" speedFactor="0.97" duration="26.00" waitingTime="0.00" timeLoss="2.46" traveltime="26.00">
        <walk depart="242.00" departPos="0.00" arrival="247.00" arrivalPos="6.03" duration="5.00" routeLength="6.03" timeLoss="0.52" maxSpeed="1.35"/>
        <walk depart="247.00" departPos="6.03" arrival="268.00" arrivalPos="19.66" duration="21.00" routeLength="25.69" timeLoss="1.93" maxSpeed="1.35"/>
    </personinfo>
    <personinfo id="person_243" depart="243.00" type="DEFAULT_PEDTYPE" speedFactor="0.99" duration="25.00" waitingTime="0.00" timeLoss="1.93" traveltime="25.00">
        <walk depart="243.00" departPos="0.00" arrival="248.00" arrivalPos="6.03" duration="5.00" routeLength="6.03" timeLoss="0.61" maxSpeed="1.37"/>
        <walk depart="248.00" departPos="6.03" arrival="268.00" arrivalPos="19.66" duration="20.00" routeLength="25.69" timeLoss="1.31" maxSpeed="1.37"/>
    </personinfo>
    <personinfo id="person_244" depart="244.00" type="DEFAULT_PEDTYPE" speedFactor="1.02" duration="25.00" waitingTime="0.00" timeLoss="2.70" traveltime="25.00">
        <walk depart="244.00" departPos="0.00" arrival="249.00" arrivalPos="6.03" duration="5.00" routeLength="6.03" timeLoss="0.76" maxSpeed="1.42"/>
        <walk depart="249.00" departPos="6.03" arrival="269.00" arrivalPos="19.66" duration="20.00" routeLength="25.69" timeLoss="1.94" maxSpeed="1.42"/>
    </personinfo>
    <personinfo id="person_245" depart="245.00" type="DEFAULT_PEDTYPE" speedFactor="1.01" duration="25.00" waitingTime="0.00" timeLoss="2.41" traveltime="25.00">
        <walk depart="245.00" departPos="0.00" arrival="250.00" arrivalPos="6.03" duration="5.00" routeLength="6.03" timeLoss="0.70" maxSpeed="1.40"/>
        <walk depart="250.00" departPos="6.03" arrival="270.00" arrivalPos="19.66" duration="20.00" routeLength="25.69" timeLoss="1.70" maxSpeed="1.40"/>
    </personinfo>
    <personinfo id="person_246" depart="246.00" type="DEFAULT_PEDTYPE" speedFactor="0.97" duration="26.00" waitingTime="0.00" timeLoss="2.52" traveltime="26.00">
        <walk depart="246.00" departPos="0.00" arrival="251.00" arrivalPos="6.03" duration="5.00" routeLength="6.03" timeLoss="0.54" maxSpeed="1.35"/>
        <walk depart="251.00" departPos="6.03" arrival="272.00" arrivalPos="19.66" duration="21.00" routeLength="25.69" timeLoss="1.99" maxSpeed="1.35"/>
    </personinfo>
    <personinfo id="person_249" depart="249.00" type="DEFAULT_PEDTYPE" speedFactor="1.11" duration="23.00" waitingTime="0.00" timeLoss="2.46" traveltime="23.00">
        <walk depart="249.00" departPos="0.00" arrival="254.00" arrivalPos="6.03" duration="5.00" routeLength="6.03" timeLoss="1.10" maxSpeed="1.54"/>
        <walk depart="254.00" departPos="6.03" arrival="272.00" arrivalPos="19.66" duration="18.00" routeLength="25.69" timeLoss="1.37" maxSpeed="1.54"/>
    </personinfo>
    <personinfo id="person_251" depart="251.00" type="DEFAULT_PEDTYPE" speedFactor="0.88" duration="29.00" waitingTime="0.00" timeLoss="2.99" traveltime="29.00">
        <walk depart="251.00" departPos="0.00" arrival="257.00" arrivalPos="6.03" duration="6.00" routeLength="6.03" timeLoss="1.06" maxSpeed="1.22"/>
        <walk depart="257.00" departPos="6.03" arrival="280.00" arrivalPos="19.66" duration="23.00" routeLength="25.69" timeLoss="1.94" maxSpeed="1.22"/>
    </personinfo>
    <personinfo id="person_134" depart="134.00" type="DEFAULT_PEDTYPE" speedFactor="1.23" duration="194.00" waitingTime="0.00" timeLoss="42.62" traveltime="194.00">
        <walk depart="134.00" departPos="0.00" arrival="238.00" arrivalPos="2.05" duration="104.00" routeLength="139.73" timeLoss="21.94" maxSpeed="1.70"/>
        <walk depart="238.00" departPos="2.05" arrival="328.00" arrivalPos="19.66" duration="90.00" routeLength="118.04" timeLoss="20.68" maxSpeed="1.70"/>
    </personinfo>
    <personinfo id="person_135" depart="135.00" type="DEFAULT_PEDTYPE" speedFactor="1.01" duration="225.00" waitingTime="0.00" timeLoss="41.55" traveltime="225.00">
        <walk depart="135.00" departPos="0.00" arrival="251.00" arrivalPos="2.05" duration="116.00" routeLength="139.73" timeLoss="16.56" maxSpeed="1.41"/>
        <walk depart="251.00" departPos="2.05" arrival="360.00" arrivalPos="19.66" duration="109.00" routeLength="118.04" timeLoss="24.99" maxSpeed="1.41"/>
    </personinfo>
    <personinfo id="person_145" depart="145.00" type="DEFAULT_PEDTYPE" speedFactor="1.14" duration="215.00" waitingTime="0.00" timeLoss="52.31" traveltime="215.00">
        <walk depart="145.00" departPos="0.00" arrival="254.00" arrivalPos="2.05" duration="109.00" routeLength="139.73" timeLoss="20.81" maxSpeed="1.58"/>
        <walk depart="254.00" departPos="2.05" arrival="360.00" arrivalPos="19.66" duration="106.00" routeLength="118.04" timeLoss="31.50" maxSpeed="1.58"/>
    </personinfo>
    <personinfo id="person_138" depart="138.00" type="DEFAULT_PEDTYPE" speedFactor="1.00" duration="238.00" waitingTime="0.00" timeLoss="53.12" traveltime="238.00">
        <walk depart="138.00" departPos="0.00" arrival="265.00" arrivalPos="2.05" duration="127.00" routeLength="139.73" timeLoss="26.79" maxSpeed="1.39"/>
        <walk depart="265.00" departPos="2.05" arrival="376.00" arrivalPos="19.66" duration="111.00" routeLength="118.04" timeLoss="26.34" maxSpeed="1.39"/>
    </personinfo>
    <personinfo id="person_142" depart="142.00" type="DEFAULT_PEDTYPE" speedFactor="0.94" duration="241.00" waitingTime="0.00" timeLoss="42.80" traveltime="241.00">
        <walk depart="142.00" departPos="0.00" arrival="265.00" arrivalPos="2.05" duration="123.00" routeLength="139.73" timeLoss="15.56" maxSpeed="1.30"/>
        <walk depart="265.00" departPos="2.05" arrival="383.00" arrivalPos="19.66" duration="118.00" routeLength="118.04" timeLoss="27.24" maxSpeed="1.30"/>
    </personinfo>
    <personinfo id="person_147" depart="147.00" type="DEFAULT_PEDTYPE" speedFactor="1.00" duration="237.00" waitingTime="0.00" timeLoss="51.81" traveltime="237.00">
        <walk depart="147.00" departPos="0.00" arrival="268.00" arrivalPos="2.05" duration="121.00" routeLength="139.73" timeLoss="20.62" maxSpeed="1.39"/>
        <walk depart="268.00" departPos="2.05" arrival="384.00" arrivalPos="19.66" duration="116.00" routeLength="118.04" timeLoss="31.19" maxSpeed="1.39"/>
    </personinfo>
    <personinfo id="person_154" depart="154.00" type="DEFAULT_PEDTYPE" speedFactor="1.06" duration="231.00" waitingTime="0.00" timeLoss="56.66" traveltime="231.00">
        <walk depart="154.00" departPos="0.00" arrival="269.00" arrivalPos="2.05" duration="115.00" routeLength="139.73" timeLoss="20.50" maxSpeed="1.48"/>
        <walk depart="269.00" departPos="2.05" arrival="385.00" arrivalPos="19.66" duration="116.00" routeLength="118.04" timeLoss="36.17" maxSpeed="1.48"/>
    </personinfo>
    <personinfo id="person_163" depart="163.00" type="DEFAULT_PEDTYPE" speedFactor="1.13" duration="222.00" waitingTime="0.00" timeLoss="57.30" traveltime="222.00">
        <walk depart="163.00" departPos="0.00" arrival="275.00" arrivalPos="2.05" duration="112.00" routeLength="139.73" timeLoss="22.72" maxSpeed="1.57"/>
        <walk depart="275.00" departPos="2.05" arrival="385.00" arrivalPos="19.66" duration="110.00" routeLength="118.04" timeLoss="34.58" maxSpeed="1.57"/>
    </personinfo>
    <personinfo id="person_162" depart="162.00" type="DEFAULT_PEDTYPE" speedFactor="0.99" duration="230.00" waitingTime="0.00" timeLoss="43.06" traveltime="230.00">
        <walk depart="162.00" departPos="0.00" arrival="282.00" arrivalPos="2.05" duration="120.00" routeLength="139.73" timeLoss="18.67" maxSpeed="1.38"/>
        <walk depart="282.00" departPos="2.05" arrival="392.00" arrivalPos="19.66" duration="110.00" routeLength="118.04" timeLoss="24.39" maxSpeed="1.38"/>
    </personinfo>
    <personinfo id="person_164" depart="164.00" type="DEFAULT_PEDTYPE" speedFactor="1.05" duration="228.00" waitingTime="0.00" timeLoss="51.56" traveltime="228.00">
        <walk depart="164.00" departPos="0.00" arrival="283.00" arrivalPos="2.05" duration="119.00" routeLength="139.73" timeLoss="23.36" maxSpeed="1.46"/>
        <walk depart="283.00" departPos="2.05" arrival="392.00" arrivalPos="19.66" duration="109.00" routeLength="118.04" timeLoss="28.20" maxSpeed="1.46"/>
    </personinfo>
    <personinfo id="person_167" depart="167.00" type="DEFAULT_PEDTYPE" speedFactor="1.03" duration="232.00" waitingTime="0.00" timeLoss="51.74" traveltime="232.00">
        <walk depart="167.00" departPos="0.00" arrival="291.00" arrivalPos="2.05" duration="124.00" routeLength="139.73" timeLoss="26.29" maxSpeed="1.43"/>
        <walk depart="291.00" departPos="2.05" arrival="399.00" arrivalPos="19.66" duration="108.00" routeLength="118.04" timeLoss="25.45" maxSpeed="1.43"/>
    </personinfo>
    <personinfo id="person_166" depart="166.00" type="DEFAULT_PEDTYPE" speedFactor="1.00" duration="238.00" waitingTime="0.00" timeLoss="53.22" traveltime="238.00">
        <walk depart="166.00" departPos="0.00" arrival="294.00" arrivalPos="2.05" duration="128.00" routeLength="139.73" timeLoss="27.84" maxSpeed="1.39"/>
        <walk depart="294.00" departPos="2.05" arrival="404.00" arrivalPos="19.66" duration="110.00" routeLength="118.04" timeLoss="25.38" maxSpeed="1.39"/>
    </personinfo>
    <personinfo id="person_170" depart="170.00" type="DEFAULT_PEDTYPE" speedFactor="1.09" duration="234.00" waitingTime="0.00" timeLoss="63.24" traveltime="234.00">
        <walk depart="170.00" departPos="0.00" arrival="294.00" arrivalPos="2.05" duration="124.00" routeLength="139.73" timeLoss="31.44" maxSpeed="1.51"/>
        <walk depart="294.00" departPos="2.05" arrival="404.00" arrivalPos="19.66" duration="110.00" routeLength="118.04" timeLoss="31.80" maxSpeed="1.51"/>
    </personinfo>
    <personinfo id="person_180" depart="180.00" type="DEFAULT_PEDTYPE" speedFactor="1.10" duration="227.00" waitingTime="0.00" timeLoss="58.24" traveltime="227.00">
        <walk depart="180.00" departPos="0.00" arrival="299.00" arrivalPos="2.05" duration="119.00" routeLength="139.73" timeLoss="27.52" maxSpeed="1.53"/>
        <walk depart="299.00" departPos="2.05" arrival="407.00" arrivalPos="19.66" duration="108.00" routeLength="118.04" timeLoss="30.72" maxSpeed="1.53"/>
    </personinfo>
    <personinfo id="person_336" depart="336.00" type="DEFAULT_PEDTYPE" speedFactor="1.16" duration="100.00" waitingTime="0.00" timeLoss="10.56" traveltime="100.00">
        <walk depart="336.00" departPos="0.00" arrival="397.00" arrivalPos="27.45" duration="61.00" routeLength="86.97" timeLoss="7.05" maxSpeed="1.61"/>
        <walk depart="397.00" departPos="27.45" arrival="436.00" arrivalPos="29.77" duration="39.00" routeLength="57.21" timeLoss="3.51" maxSpeed="1.61"/>
    </personinfo>
    <personinfo id="person_158" depart="158.00" type="DEFAULT_PEDTYPE" speedFactor="0.91" duration="279.00" waitingTime="0.00" timeLoss="74.98" traveltime="279.00">
        <walk depart="158.00" departPos="0.00" arrival="298.00" arrivalPos="2.05" duration="140.00" routeLength="139.73" timeLoss="29.41" maxSpeed="1.26"/>
        <walk depart="298.00" departPos="2.05" arrival="437.00" arrivalPos="19.66" duration="139.00" routeLength="118.04" timeLoss="45.57" maxSpeed="1.26"/>
    </personinfo>
    <personinfo id="person_174" depart="174.00" type="DEFAULT_PEDTYPE" speedFactor="0.96" duration="264.00" waitingTime="0.00" timeLoss="69.84" traveltime="264.00">
        <walk depart="174.00" departPos="0.00" arrival="303.00" arrivalPos="2.05" duration="129.00" routeLength="139.73" timeLoss="23.75" maxSpeed="1.33"/>
        <walk depart="303.00" departPos="2.05" arrival="438.00" arrivalPos="19.66" duration="135.00" routeLength="118.04" timeLoss="46.09" maxSpeed="1.33"/>
    </personinfo>
    <personinfo id="person_150" depart="150.00" type="DEFAULT_PEDTYPE" speedFactor="0.96" duration="289.00" waitingTime="0.00" timeLoss="96.27" traveltime="289.00">
        <walk depart="150.00" departPos="0.00" arrival="298.00" arrivalPos="2.05" duration="148.00" routeLength="139.73" timeLoss="43.53" maxSpeed="1.34"/>
        <walk depart="298.00" departPos="2.05" arrival="439.00" arrivalPos="19.66" duration="141.00" routeLength="118.04" timeLoss="52.74" maxSpeed="1.34"/>
    </personinfo>
    <personinfo id="person_188" depart="188.00" type="DEFAULT_PEDTYPE" speedFactor="0.97" duration="252.00" waitingTime="0.00" timeLoss="60.96" traveltime="252.00">
        <walk depart="188.00" departPos="0.00" arrival="311.00" arrivalPos="2.05" duration="123.00" routeLength="139.73" timeLoss="19.44" maxSpeed="1.35"/>
        <walk depart="311.00" departPos="2.05" arrival="440.00" arrivalPos="19.66" duration="129.00" routeLength="118.04" timeLoss="41.51" maxSpeed="1.35"/>
    </personinfo>
    <personinfo id="person_184" depart="184.00" type="DEFAULT_PEDTYPE" speedFactor="0.94" duration="259.00" waitingTime="0.00" timeLoss="61.93" traveltime="259.00">
        <walk depart="184.00" departPos="0.00" arrival="311.00" arrivalPos="2.05" duration="127.00" routeLength="139.73" timeLoss="20.18" maxSpeed="1.31"/>
        <walk depart="311.00" departPos="2.05" arrival="443.00" arrivalPos="19.66" duration="132.00" routeLength="118.04" timeLoss="41.76" maxSpeed="1.31"/>
    </personinfo>
    <personinfo id="person_334" depart="334.00" type="DEFAULT_PEDTYPE" speedFactor="1.18" duration="110.00" waitingTime="0.00" timeLoss="22.34" traveltime="110.00">
        <walk depart="334.00" departPos="0.00" arrival="401.00" arrivalPos="27.45" duration="67.00" routeLength="86.97" timeLoss="14.12" maxSpeed="1.64"/>
        <walk depart="401.00" departPos="27.45" arrival="444.00" arrivalPos="29.77" duration="43.00" routeLength="57.21" timeLoss="8.22" maxSpeed="1.64"/>
    </personinfo>
    <personinfo id="person_223" depart="223.00" type="DEFAULT_PEDTYPE" speedFactor="1.06" duration="221.00" waitingTime="0.00" timeLoss="46.63" traveltime="221.00">
        <walk depart="223.00" departPos="0.00" arrival="329.00" arrivalPos="2.05" duration="106.00" routeLength="139.73" timeLoss="11.48" maxSpeed="1.48"/>
        <walk depart="329.00" departPos="2.05" arrival="444.00" arrivalPos="19.66" duration="115.00" routeLength="118.04" timeLoss="35.15" maxSpeed="1.48"/>
    </personinfo>
    <personinfo id="person_328" depart="328.00" type="DEFAULT_PEDTYPE" speedFactor="1.00" duration="118.00" waitingTime="0.00" timeLoss="14.63" traveltime="118.00">
        <walk depart="328.00" departPos="0.00" arrival="400.00" arrivalPos="27.45" duration="72.00" routeLength="86.97" timeLoss="9.65" maxSpeed="1.39"/>
        <walk depart="400.00" departPos="27.45" arrival="446.00" arrivalPos="29.77" duration="46.00" routeLength="57.21" timeLoss="4.99" maxSpeed="1.39"/>
    </personinfo>
    <personinfo id="person_144" depart="144.00" type="DEFAULT_PEDTYPE" speedFactor="0.73" duration="302.00" waitingTime="0.00" timeLoss="49.00" traveltime="302.00">
        <walk depart="144.00" departPos="0.00" arrival="297.00" arrivalPos="2.05" duration="153.00" routeLength="139.73" timeLoss="15.86" maxSpeed="1.02"/>
        <walk depart="297.00" departPos="2.05" arrival="446.00" arrivalPos="19.66" duration="149.00" routeLength="118.04" timeLoss="33.14" maxSpeed="1.02"/>
    </personinfo>
    <personinfo id="person_339" depart="339.00" type="DEFAULT_PEDTYPE" speedFactor="1.17" duration="108.00" waitingTime="0.00" timeLoss="20.27" traveltime="108.00">
        <walk depart="339.00" departPos="0.00" arrival="405.00" arrivalPos="27.45" duration="66.00" routeLength="86.97" timeLoss="12.39" maxSpeed="1.62"/>
        <walk depart="405.00" departPos="27.45" arrival="447.00" arrivalPos="27.91" duration="42.00" routeLength="55.36" timeLoss="7.88" maxSpeed="1.62"/>
    </personinfo>
    <personinfo id="person_169" depart="169.00" type="DEFAULT_PEDTYPE" speedFactor="0.94" duration="278.00" waitingTime="0.00" timeLoss="80.60" traveltime="278.00">
        <walk depart="169.00" departPos="0.00" arrival="301.00" arrivalPos="2.05" duration="132.00" routeLength="139.73" timeLoss="25.00" maxSpeed="1.31"/>
        <walk depart="301.00" departPos="2.05" arrival="447.00" arrivalPos="19.66" duration="146.00" routeLength="118.04" timeLoss="55.60" maxSpeed="1.31"/>
    </personinfo>
    <personinfo id="person_189" depart="189.00" type="DEFAULT_PEDTYPE" speedFactor="0.97" duration="258.00" waitingTime="0.00" timeLoss="66.90" traveltime="258.00">
        <walk depart="189.00" departPos="0.00" arrival="312.00" arrivalPos="2.05" duration="123.00" routeLength="139.73" timeLoss="19.41" maxSpeed="1.35"/>